#------------------------------------------------------------------------------
#$Date: 2018-09-27 07:13:35 +0300 (Thu, 27 Sep 2018) $
#$Revision: 211196 $
#$URL: file:///home/coder/svn-repositories/cod/cif/1/52/36/1523617.cif $
#------------------------------------------------------------------------------
#
# This file is available in the Crystallography Open Database (COD),
# http://www.crystallography.net/
#
# All data on this site have been placed in the public domain by the
# contributors.
#
data_1523617
loop_
_publ_author_name
'Ferro, R.'
'Marazza, R.'
'Rambaldi, G.'
_publ_section_title
;
 Fe2 P-type phases in the ternary alloys of the rare earths with thallium
 and palladium
;
_journal_name_full               'Zeitschrift fuer Metallkunde'
_journal_page_first              40
_journal_page_last               41
_journal_volume                  65
_journal_year                    1974
_chemical_formula_sum            'Ho Pd Tl'
_space_group_IT_number           189
_symmetry_space_group_name_Hall  'P -6 -2'
_symmetry_space_group_name_H-M   'P -6 2 m'
_cell_angle_alpha                90
_cell_angle_beta                 90
_cell_angle_gamma                120
_cell_formula_units_Z            3
_cell_length_a                   7.727
_cell_length_b                   7.727
_cell_length_c                   3.722
_cell_volume                     192.455
_citation_journal_id_ASTM        ZEMTAE
_cod_data_source_file            Ferro_ZEMTAE_1974_724.cif
_cod_data_source_block           Ho1Pd1Tl1
_cod_original_cell_volume        192.4548
_cod_original_formula_sum        'Ho1 Pd1 Tl1'
_cod_database_code               1523617
loop_
_symmetry_equiv_pos_as_xyz
x,y,z
-x+y,-x,-z
-y,x-y,z
x,y,-z
-x+y,-x,z
-y,x-y,-z
y,x,z
x-y,-y,-z
-x,-x+y,z
y,x,-z
x-y,-y,z
-x,-x+y,-z
loop_
_atom_site_label
_atom_site_type_symbol
_atom_site_fract_x
_atom_site_fract_y
_atom_site_fract_z
_atom_site_occupancy
_atom_site_U_iso_or_equiv
Ho1 Ho 0.585 0 0.5 1 0.0
Pd2 Pd 0.3333 0.6667 0 1 0.0
Tl1 Tl 0.245 0 0 1 0.0
Pd1 Pd 0 0 0.5 1 0.0
