#------------------------------------------------------------------------------
#$Date: 2017-09-26 13:05:51 +0300 (Tue, 26 Sep 2017) $
#$Revision: 201304 $
#$URL: file:///home/coder/svn-repositories/cod/cif/1/54/73/1547356.cif $
#------------------------------------------------------------------------------
#
# This file is available in the Crystallography Open Database (COD),
# http://www.crystallography.net/
#
# All data on this site have been placed in the public domain by the
# contributors.
#
data_1547356
loop_
_publ_author_name
'Nobuo Ishizawa'
'Hayato Setoguchi'
'Kazumichi Yanagisawa'
_publ_section_title
;
 Structural evolution of calcite at high temperatures: Phase V unveiled
;
_journal_name_full               'Scientific Reports'
_journal_page_first              2832
_journal_paper_doi               10.1038/srep02832
_journal_volume                  3
_journal_year                    2013
_chemical_absolute_configuration .
_chemical_formula_sum            'C Ca O'
_chemical_formula_weight         68.1
_space_group_IT_number           167
_symmetry_cell_setting           trigonal
_symmetry_Int_Tables_number      167
_symmetry_space_group_name_Hall  '-R 3 2"c'
_symmetry_space_group_name_H-M   'R -3 c :H'
_cell_angle_alpha                90
_cell_angle_beta                 90
_cell_angle_gamma                120
_cell_formula_units_Z            36
_cell_length_a                   4.9752
_cell_length_b                   4.9752
_cell_length_c                   17.4450(4)
_cell_measurement_temperature    974
_cell_volume                     373.958(9)
_diffrn_ambient_temperature      974
_diffrn_measured_fraction_theta_full 1
_diffrn_measured_fraction_theta_max 1
_diffrn_measurement_device       'four-cycle diffractometer'
_diffrn_measurement_device_type  'Bruker CCD'
_diffrn_radiation_monochromator  graphite
_diffrn_radiation_probe          x-ray
_diffrn_radiation_source         'X-ray tube'
_diffrn_radiation_type           'Mo K\a'
_diffrn_radiation_wavelength     0.71073
_diffrn_reflns_av_R_equivalents  0.021
_diffrn_reflns_av_sigmaI/netI    0.0169
_diffrn_reflns_limit_h_max       8
_diffrn_reflns_limit_h_min       -7
_diffrn_reflns_limit_k_max       7
_diffrn_reflns_limit_k_min       -6
_diffrn_reflns_limit_l_max       30
_diffrn_reflns_limit_l_min       -30
_diffrn_reflns_number            1803
_diffrn_reflns_theta_full        40.03
_diffrn_reflns_theta_max         40.03
_diffrn_reflns_theta_min         5.28
_exptl_absorpt_coefficient_mu    12.842
_exptl_crystal_density_diffrn    10.8811
_exptl_crystal_F_000             300
_refine_diff_density_max         0.19
_refine_diff_density_min         -0.20
_refine_ls_extinction_coef       900(200)
_refine_ls_extinction_method
'B-C type 1 Gaussian isotropic (Becker & Coppens, 1974)'
_refine_ls_goodness_of_fit_gt    2.13
_refine_ls_goodness_of_fit_ref   1.94
_refine_ls_number_constraints    0
_refine_ls_number_parameters     15
_refine_ls_number_reflns         261
_refine_ls_number_restraints     0
_refine_ls_R_factor_all          0.0335
_refine_ls_R_factor_gt           0.0283
_refine_ls_shift/su_max          0.0054
_refine_ls_shift/su_mean         0.0018
_refine_ls_structure_factor_coef F
_refine_ls_weighting_details     w=1/(\s^2^(F)+0.0001F^2^)
_refine_ls_weighting_scheme      sigma
_refine_ls_wR_factor_gt          0.0320
_refine_ls_wR_factor_ref         0.0328
_reflns_number_gt                209
_reflns_number_total             261
_reflns_threshold_expression     I>3\s(I)
_cod_data_source_file            srep02832-s31.cif
_cod_data_source_block           974K_hs29_h680_I_anharm
_cod_depositor_comments
;
The following automatic conversions were performed:

'_diffrn_radiation_probe' value 'X-ray' changed to 'x-ray' according
to the built-in table from CIF Core dictionary named 'cif_core.dic'
version 2.4.1 from 2010-06-29.

Automatic conversion script
Id: cif_fix_values 5376 2017-05-30 11:51:03Z andrius 
;
_cod_original_sg_symbol_Hall     '-R 3;-2"c'
_cod_original_sg_symbol_H-M      'R -3 c'
_cod_original_formula_sum        'C1 Ca1 O1'
_cod_database_code               1547356
loop_
_symmetry_equiv_pos_site_id
_symmetry_equiv_pos_as_xyz
1 x,y,z
2 -y,x-y,z
3 -x+y,-x,z
4 y,x,-z+1/2
5 x-y,-y,-z+1/2
6 -x,-x+y,-z+1/2
7 -x,-y,-z
8 y,-x+y,-z
9 x-y,x,-z
10 -y,-x,z+1/2
11 -x+y,y,z+1/2
12 x,x-y,z+1/2
13 x+2/3,y+1/3,z+1/3
14 -y+2/3,x-y+1/3,z+1/3
15 -x+y+2/3,-x+1/3,z+1/3
16 y+2/3,x+1/3,-z+5/6
17 x-y+2/3,-y+1/3,-z+5/6
18 -x+2/3,-x+y+1/3,-z+5/6
19 -x+2/3,-y+1/3,-z+1/3
20 y+2/3,-x+y+1/3,-z+1/3
21 x-y+2/3,x+1/3,-z+1/3
22 -y+2/3,-x+1/3,z+5/6
23 -x+y+2/3,y+1/3,z+5/6
24 x+2/3,x-y+1/3,z+5/6
25 x+1/3,y+2/3,z+2/3
26 -y+1/3,x-y+2/3,z+2/3
27 -x+y+1/3,-x+2/3,z+2/3
28 y+1/3,x+2/3,-z+1/6
29 x-y+1/3,-y+2/3,-z+1/6
30 -x+1/3,-x+y+2/3,-z+1/6
31 -x+1/3,-y+2/3,-z+2/3
32 y+1/3,-x+y+2/3,-z+2/3
33 x-y+1/3,x+2/3,-z+2/3
34 -y+1/3,-x+2/3,z+1/6
35 -x+y+1/3,y+2/3,z+1/6
36 x+1/3,x-y+2/3,z+1/6
loop_
_atom_site_label
_atom_site_type_symbol
_atom_site_fract_x
_atom_site_fract_y
_atom_site_fract_z
_atom_site_adp_type
_atom_site_U_iso_or_equiv
_atom_site_site_symmetry_mutiplicity
_atom_site_occupancy
_atom_site_calc_flag
_atom_site_refinement_flags
_atom_site_disorder_assembly
_atom_site_disorder_group
Ca1 Ca 0 0 0 Uani 0.04046(15) 6 1 d . . .
C1 C 0 0 0.25 Uani 0.0343(4) 6 1 d . . .
O1 O 0.2489(5) 0 0.25 Uani 0.0730(6) 18 1 d . . .
loop_
_atom_site_aniso_label
_atom_site_aniso_type_symbol
_atom_site_aniso_U_11
_atom_site_aniso_U_22
_atom_site_aniso_U_33
_atom_site_aniso_U_12
_atom_site_aniso_U_13
_atom_site_aniso_U_23
Ca1 Ca 0.0417(2) 0.0417(2) 0.0379(2) 0.02087(10) 0 0
C1 C 0.0312(4) 0.0312(4) 0.0404(7) 0.0156(2) 0 0
O1 O 0.0496(4) 0.1013(11) 0.0852(8) 0.0506(6) -0.0203(4) -0.0405(8)
loop_
_atom_type_symbol
_atom_type_scat_dispersion_real
_atom_type_scat_dispersion_imag
_atom_type_scat_source
C 0.0033 0.0016 'International Tables Vol C tables 4.2.6.8 and 6.1.1.1'
Ca 0.2262 0.3064 'International Tables Vol C tables 4.2.6.8 and 6.1.1.1'
O 0.0106 0.0060 'International Tables Vol C tables 4.2.6.8 and 6.1.1.1'
loop_
_geom_bond_atom_site_label_1
_geom_bond_atom_site_label_2
_geom_bond_site_symmetry_1
_geom_bond_site_symmetry_2
_geom_bond_distance
Ca1 Ca1 . 16_444 4.08710(9)
Ca1 Ca1 . 16_454 4.08710(9)
Ca1 Ca1 . 16_554 4.08710(9)
Ca1 Ca1 . 28_445 4.08711(9)
Ca1 Ca1 . 28_545 4.08711(9)
Ca1 Ca1 . 28_555 4.08711(9)
Ca1 C1 . 25_444 3.21936(3)
Ca1 C1 . 25_544 3.21936(3)
Ca1 C1 . 25_554 3.21936(3)
Ca1 C1 . 19_445 3.21936(3)
Ca1 C1 . 19_455 3.21936(3)
Ca1 C1 . 19_555 3.21936(3)
Ca1 O1 . 25_444 2.3951(12)
Ca1 O1 . 26_544 2.3951(12)
Ca1 O1 . 27_554 2.3951(18)
Ca1 O1 . 19_555 2.3951(12)
Ca1 O1 . 20_455 2.3951(12)
Ca1 O1 . 21_445 2.3951(18)
C1 O1 . . 1.238(2)
C1 O1 . 2_555 1.238(2)
C1 O1 . 3_555 1.2385(16)
loop_
_refln_index_h
_refln_index_k
_refln_index_l
_refln_F_squared_calc
_refln_F_squared_meas
_refln_F_squared_sigma
_refln_observed_status
-1 2 0 4178.11 3838.46 82.54 o
0 3 0 3892.75 3972.12 66.15 o
-2 4 0 1771.89 1765.44 19.90 o
-1 5 0 719.60 700.93 5.96 o
-3 6 0 187.72 174.41 3.29 o
0 6 0 66.66 65.55 2.34 o
-2 7 0 90.04 84.15 1.54 o
-4 8 0 68.86 72.57 2.13 o
-1 8 0 24.98 28.11 1.79 o
-2 3 1 857.43 892.55 10.31 o
-1 4 1 4.61 4.49 0.22 o
-3 5 1 115.56 105.85 1.17 o
-5 6 1 6.92 8.49 0.53 o
-2 6 1 0.61 0.53 0.24 <
-4 7 1 8.40 10.22 0.58 o
-1 7 1 1.02 1.19 0.46 <
-6 8 1 0.55 0.46 0.45 <
-3 8 1 0.11 0.58 0.35 <
0 1 2 897.33 1037.58 22.35 o
-2 2 2 6906.81 7698.48 165.21 o
-1 3 2 2712.58 2762.74 31.11 o
-3 4 2 191.87 188.96 1.73 o
0 4 2 24.68 25.63 0.66 o
-5 5 2 140.00 132.10 2.44 o
-2 5 2 340.87 333.55 3.06 o
-4 6 2 154.87 150.88 2.12 o
-1 6 2 123.04 122.52 1.84 o
-6 7 2 17.90 20.64 1.11 o
-3 7 2 20.69 19.31 0.72 o
0 7 2 3.27 0.13 0.90 <
-5 8 2 1.65 1.04 0.37 <
-2 8 2 2.40 1.92 0.48 o
-1 2 3 2166.87 2402.68 29.77 o
-2 4 3 1.87 1.62 0.19 o
-4 5 3 15.36 14.62 0.43 o
-1 5 3 4.19 3.49 0.24 o
-3 6 3 3.02 3.19 0.32 o
-5 7 3 9.39 10.67 0.59 o
-2 7 3 5.24 6.07 0.46 o
-7 8 3 0.61 -0.11 0.77 <
-4 8 3 0.02 0.22 0.34 <
-1 8 3 0.36 0.11 0.85 <
-1 1 4 18885.10 18730.00 413.33 o
0 2 4 3429.70 3571.78 76.72 o
-2 3 4 1888.96 1973.13 20.25 o
-4 4 4 2139.12 2074.86 20.43 o
-1 4 4 2118.52 2107.99 15.78 o
-3 5 4 606.77 598.28 4.90 o
0 5 4 325.74 330.55 3.96 o
-5 6 4 97.81 93.58 1.67 o
-2 6 4 152.38 142.51 1.89 o
-7 7 4 43.36 42.66 2.72 o
-4 7 4 125.98 120.90 1.80 o
-1 7 4 57.89 57.84 1.55 o
-6 8 4 33.32 34.06 1.27 o
-3 8 4 48.61 49.11 1.25 o
-1 3 5 642.30 656.77 6.30 o
-3 4 5 25.78 25.63 0.53 o
-2 5 5 60.29 56.67 0.83 o
-4 6 5 0.52 0.40 0.22 <
-1 6 5 5.15 5.53 0.45 o
-6 7 5 1.41 1.63 0.56 <
-3 7 5 4.16 4.70 0.43 o
-5 8 5 0.01 -0.03 0.34 <
-2 8 5 0.46 0.05 0.35 <
0 0 6 771.71 1086.14 23.49 o
-1 2 6 4709.74 5083.24 69.08 o
-3 3 6 613.45 628.40 9.02 o
0 3 6 353.62 360.40 4.67 o
-2 4 6 587.86 574.29 5.11 o
-4 5 6 89.96 92.43 1.07 o
-1 5 6 144.43 141.04 1.43 o
-6 6 6 80.38 83.67 3.69 o
-3 6 6 143.57 141.48 1.89 o
0 6 6 45.09 44.67 1.54 o
-5 7 6 21.36 21.70 0.79 o
-2 7 6 20.33 21.55 0.79 o
-7 8 6 0.26 -0.14 0.83 <
-4 8 6 0.89 0.67 0.37 <
-1 8 6 1.11 1.30 1.04 <
-2 3 7 312.61 311.88 3.32 o
-1 4 7 1.22 1.33 0.16 o
-3 5 7 85.13 81.75 1.09 o
-5 6 7 6.05 6.15 0.45 o
-2 6 7 0.58 0.79 0.29 <
-4 7 7 6.28 5.90 0.46 o
-1 7 7 0.42 0.08 0.34 <
-6 8 7 0.41 -0.53 0.51 <
-3 8 7 0.30 -0.14 0.30 <
0 1 8 9692.35 10470.40 182.94 o
-2 2 8 1279.95 1358.17 24.02 o
-1 3 8 1701.03 1750.61 14.59 o
-3 4 8 1477.79 1474.66 14.41 o
0 4 8 1235.62 1261.50 14.50 o
-5 5 8 235.37 230.93 4.14 o
-2 5 8 357.78 376.60 3.71 o
-4 6 8 145.37 142.07 1.92 o
-1 6 8 97.84 98.74 1.68 o
-6 7 8 35.75 36.51 1.84 o
-3 7 8 92.59 87.37 1.49 o
0 7 8 31.60 34.63 1.97 o
-5 8 8 36.40 37.10 1.09 o
-2 8 8 21.75 23.09 0.99 o
-1 2 9 544.77 562.71 5.06 o
-2 4 9 1.51 1.51 0.18 o
-4 5 9 11.67 10.70 0.45 o
-1 5 9 0.02 0.14 0.16 <
-3 6 9 1.59 1.20 0.30 o
-5 7 9 7.35 8.53 0.53 o
-2 7 9 1.23 2.04 0.40 o
-4 8 9 0.04 -0.13 0.34 <
-1 1 10 1029.82 1055.66 17.75 o
0 2 10 1313.12 1367.21 16.26 o
-2 3 10 1208.25 1203.46 9.00 o
-4 4 10 15.46 16.12 0.69 o
-1 4 10 166.35 161.96 1.52 o
-3 5 10 153.32 151.14 1.84 o
0 5 10 67.35 69.98 1.43 o
-5 6 10 75.17 77.48 1.55 o
-2 6 10 91.08 89.76 1.57 o
-7 7 10 2.12 3.16 1.14 <
-4 7 10 9.13 8.25 0.54 o
-1 7 10 7.89 6.79 0.58 o
-6 8 10 1.48 1.01 0.72 <
-3 8 10 1.81 1.62 0.38 o
-1 3 11 159.10 156.46 1.52 o
-3 4 11 20.66 20.87 0.46 o
-2 5 11 12.89 12.74 0.46 o
-4 6 11 0.46 0.96 0.30 o
-1 6 11 2.44 3.04 0.43 o
-6 7 11 0.86 1.67 0.69 <
-3 7 11 0.58 0.35 0.30 <
-5 8 11 0.00 -0.16 0.37 <
-2 8 11 0.20 0.27 0.61 <
0 0 12 7078.88 4354.18 111.29 o
-1 2 12 1296.62 1341.00 8.69 o
-3 3 12 975.42 1006.06 8.99 o
0 3 12 1308.87 1306.21 14.91 o
-2 4 12 549.39 572.73 4.48 o
-4 5 12 313.20 318.93 3.46 o
-1 5 12 231.63 232.16 2.16 o
-6 6 12 20.01 23.43 2.04 o
-3 6 12 96.73 94.51 1.63 o
0 6 12 50.07 53.53 1.38 o
-5 7 12 39.81 40.02 1.07 o
-2 7 12 39.23 37.89 1.17 o
-4 8 12 26.60 28.16 1.09 o
-2 3 13 40.50 38.85 0.61 o
-1 4 13 3.07 3.32 0.26 o
-3 5 13 27.08 24.74 0.69 o
-5 6 13 3.24 3.67 0.50 o
-2 6 13 0.25 0.26 0.30 <
-4 7 13 1.98 2.36 0.38 o
-1 7 13 0.14 -0.32 0.38 <
-3 8 13 0.25 -0.22 0.51 <
0 1 14 437.41 413.69 4.13 o
-2 2 14 1001.79 1002.69 10.04 o
-1 3 14 371.03 366.87 3.14 o
-3 4 14 82.70 79.15 1.03 o
0 4 14 40.35 40.37 1.15 o
-5 5 14 46.56 38.40 2.48 o
-2 5 14 124.80 122.30 1.44 o
-4 6 14 32.14 34.76 1.04 o
-1 6 14 27.23 26.76 0.79 o
-6 7 14 7.56 7.45 1.51 o
-3 7 14 6.86 6.71 0.59 o
-1 2 15 59.63 57.17 0.61 o
-2 4 15 0.68 0.82 0.19 o
-4 5 15 2.86 3.69 0.43 o
-1 5 15 0.71 1.47 0.29 o
-3 6 15 0.51 0.18 0.35 <
-5 7 15 2.64 2.40 0.48 o
-2 7 15 0.11 1.01 0.43 <
-1 1 16 1165.45 1184.75 10.35 o
0 2 16 744.74 754.07 7.81 o
-2 3 16 374.89 376.96 2.98 o
-4 4 16 351.69 360.02 7.27 o
-1 4 16 316.69 316.27 3.03 o
-3 5 16 139.59 142.51 1.96 o
0 5 16 88.67 89.21 1.99 o
-5 6 16 27.83 29.86 1.36 o
-2 6 16 41.48 41.01 1.01 o
-4 7 16 34.99 35.77 1.17 o
-1 7 16 14.92 18.49 1.46 o
-1 3 17 19.54 20.10 0.45 o
-3 4 17 5.88 5.48 0.30 o
-2 5 17 1.36 0.95 0.26 o
-4 6 17 0.27 0.45 0.38 <
-1 6 17 0.70 0.83 0.34 <
-6 7 17 0.20 0.75 0.96 <
-3 7 17 0.00 0.30 0.42 <
0 0 18 132.54 121.23 2.47 o
-1 2 18 300.77 294.48 2.17 o
-3 3 18 98.83 102.52 1.44 o
0 3 18 61.96 59.90 1.17 o
-2 4 18 98.98 97.28 1.25 o
-4 5 18 19.65 21.44 0.83 o
-1 5 18 31.90 32.66 0.74 o
-6 6 18 14.56 13.97 1.83 o
-3 6 18 19.14 21.55 0.85 o
0 6 18 4.92 2.77 0.61 o
-5 7 18 3.77 4.68 0.77 o
-2 7 18 4.48 3.43 0.77 o
-2 3 19 2.50 2.29 0.22 o
-1 4 19 1.07 0.90 0.26 o
-3 5 19 4.26 4.25 0.40 o
-5 6 19 0.93 2.10 0.74 <
-2 6 19 0.04 0.38 0.30 <
-4 7 19 0.30 -0.08 0.61 <
0 1 20 457.35 459.39 3.77 o
-2 2 20 199.65 193.92 1.96 o
-1 3 20 205.77 203.17 1.81 o
-3 4 20 141.00 147.55 1.47 o
0 4 20 114.38 118.03 2.13 o
-5 5 20 30.51 33.48 2.58 o
-2 5 20 46.05 47.90 0.95 o
-4 6 20 27.19 30.95 1.22 o
-1 6 20 17.90 18.14 0.79 o
-1 2 21 4.07 3.59 0.24 o
-2 4 21 0.15 0.42 0.22 <
-4 5 21 0.25 0.14 0.40 <
-1 5 21 0.31 0.34 0.26 <
-3 6 21 0.11 -0.11 0.35 <
-1 1 22 102.81 102.17 1.23 o
0 2 22 69.31 67.86 1.23 o
-2 3 22 69.65 70.68 0.87 o
-4 4 22 9.46 9.36 0.77 o
-1 4 22 25.90 27.08 0.66 o
-3 5 22 15.81 17.96 0.64 o
0 5 22 6.14 6.30 0.64 o
-5 6 22 6.49 5.83 1.07 o
-2 6 22 8.33 9.41 0.62 o
-1 3 23 1.42 1.03 0.22 o
-3 4 23 0.76 0.74 0.24 o
-2 5 23 0.09 0.35 0.27 <
-4 6 23 0.07 0.51 0.69 <
0 0 24 182.49 178.11 3.05 o
-1 2 24 100.69 98.31 1.06 o
-3 3 24 65.61 64.66 1.52 o
0 3 24 74.80 76.12 1.41 o
-2 4 24 40.15 38.62 0.75 o
-4 5 24 21.31 21.60 0.96 o
-1 5 24 18.03 17.87 0.75 o
-2 3 25 0.07 0.00 0.22 <
-1 4 25 0.14 0.16 0.26 <
-3 5 25 0.34 0.72 0.32 <
0 1 26 31.91 31.07 0.72 o
-2 2 26 32.04 34.50 0.93 o
-1 3 26 18.61 19.54 0.56 o
-3 4 26 7.88 7.44 0.45 o
0 4 26 5.02 5.87 0.71 o
-2 5 26 6.94 7.37 0.62 o
-1 2 27 0.17 -0.02 0.21 <
-2 4 27 0.02 -0.05 0.27 <
-1 1 28 40.29 38.88 0.90 o
0 2 28 31.54 32.34 0.90 o
-2 3 28 20.63 20.03 0.62 o
-1 4 28 12.58 11.49 0.69 o
-1 3 29 0.06 0.24 0.34 <
0 0 30 9.88 11.15 0.88 o
-1 2 30 8.51 8.99 0.48 o
loop_
_jana_atom_site_adp_c_label
_jana_atom_site_adp_c_type_symbol
_jana_atom_site_adp_c_111
_jana_atom_site_adp_c_112
_jana_atom_site_adp_c_113
_jana_atom_site_adp_c_122
_jana_atom_site_adp_c_123
_jana_atom_site_adp_c_133
_jana_atom_site_adp_c_222
_jana_atom_site_adp_c_223
_jana_atom_site_adp_c_233
_jana_atom_site_adp_c_333
O1 O -0.051(5) -0.052(4) 0.0071(7) -0.052(4) 0.0071(7) -0.00189(19) 0 0 0 0
